# vtk DataFile Version 3.0
vtk output
ASCII
DATASET UNSTRUCTURED_GRID
POINTS 27 float
0 0 0 0.5 0 0 0 0.5 0 
0.5 0.5 0 0 0 0.5 0.5 0 0.5 
0 0.5 0.5 0.5 0.5 0.5 1 0 0 
1 0.5 0 1 0 0.5 1 0.5 0.5 
0 1 0 0.5 1 0 0 1 0.5 
0.5 1 0.5 1 1 0 1 1 0.5 
0 0 1 0.5 0 1 0 0.5 1 
0.5 0.5 1 1 0 1 1 0.5 1 
0 1 1 0.5 1 1 1 1 1 

CELLS 8 72
8 0 1 3 2 4 5 7 6 
8 1 8 9 3 5 10 11 7 
8 2 3 13 12 6 7 15 14 
8 3 9 16 13 7 11 17 15 
8 4 5 7 6 18 19 21 20 
8 5 10 11 7 19 22 23 21 
8 6 7 15 14 20 21 25 24 
8 7 11 17 15 21 23 26 25 

CELL_TYPES 8
12
12
12
12
12
12
12
12

CELL_DATA 8
SCALARS PORO float
LOOKUP_TABLE default
0.2 0.2 0.2 0.2 0.2 0.2 0.2 0.2 
FIELD FieldData 3
PERMX 1 8 float
1 1 1 1 10 10 10 10 
ACTNUM 1 8 float
1 1 1 1 1 1 1 1 
SATNUM 1 8 float
1 1 1 1 2 2 2 2 
